REMARK  Generated from SMILES: OC[C@H](O)[C@H]1OC(=O)C(O)=C1O
ROOT
ATOM      1 O 1  LIG A   1      -3.499   0.286   0.777  1.00  0.00     -0.39 OA
ATOM      2 C 2  LIG A   1      -2.384   0.762   0.021  1.00  0.00      0.07 C 
ATOM      3 C 3  LIG A   1      -1.258  -0.275   0.076  1.00  0.00      0.12 C 
ATOM      4 O 4  LIG A   1      -0.908  -0.444   1.465  1.00  0.00     -0.39 OA
ATOM      5 C 5  LIG A   1      -0.054   0.164  -0.777  1.00  0.00      0.19 C 
ATOM      6 O 6  LIG A   1       0.464   1.431  -0.320  1.00  0.00     -0.45 OA
ATOM      7 C 7  LIG A   1       1.765   1.283   0.056  1.00  0.00      0.38 C 
ATOM      8 O 8  LIG A   1       2.503   2.144   0.501  1.00  0.00     -0.24 OA
ATOM      9 C 9  LIG A   1       2.176  -0.106  -0.184  1.00  0.00      0.24 C 
ATOM     10 O10  LIG A   1       3.415  -0.624   0.055  1.00  0.00     -0.50 OA
ATOM     11 C11  LIG A   1       1.117  -0.740  -0.670  1.00  0.00      0.19 C 
ATOM     12 O12  LIG A   1       1.055  -2.056  -1.034  1.00  0.00     -0.51 OA
ATOM     13 H13  LIG A   1      -3.126   0.044   1.648  1.00  0.00      0.21 HD
ATOM     14 H14  LIG A   1      -2.717   0.936  -1.006  1.00  0.00      0.06 HD
ATOM     15 H15  LIG A   1      -2.077   1.716   0.463  1.00  0.00      0.06 HD
ATOM     16 H16  LIG A   1      -1.644  -1.243  -0.269  1.00  0.00      0.07 HD
ATOM     17 H17  LIG A   1      -0.374  -1.258   1.523  1.00  0.00      0.21 HD
ATOM     18 H18  LIG A   1      -0.353   0.284  -1.825  1.00  0.00      0.09 HD
ATOM     19 H19  LIG A   1       3.943   0.122   0.412  1.00  0.00      0.29 HD
ATOM     20 H20  LIG A   1       1.955  -2.425  -0.910  1.00  0.00      0.29 HD
ENDROOT
TORSDOF 1
