REMARK  Generated from SMILES: CCOC(=O)C(=O)OC[C@@H](O)[C@@H]1OC(=O)C(O)=C1O
ROOT
ATOM      1 C 1  LIG A   1       6.006   0.823  -0.981  1.00  0.00     -0.03 C 
ATOM      2 C 2  LIG A   1       5.088  -0.086  -0.186  1.00  0.00      0.09 C 
ATOM      3 O 3  LIG A   1       3.760   0.060  -0.701  1.00  0.00     -0.46 OA
ATOM      4 C 4  LIG A   1       2.805  -0.553   0.031  1.00  0.00      0.42 C 
ATOM      5 O 5  LIG A   1       2.964  -1.183   1.062  1.00  0.00     -0.24 OA
ATOM      6 C 6  LIG A   1       1.418  -0.324  -0.617  1.00  0.00      0.42 C 
ATOM      7 O 7  LIG A   1       1.249   0.107  -1.742  1.00  0.00     -0.24 OA
ATOM      8 O 8  LIG A   1       0.449  -0.659   0.268  1.00  0.00     -0.45 OA
ATOM      9 C 9  LIG A   1      -0.892  -0.453  -0.217  1.00  0.00      0.12 C 
ATOM     10 C10  LIG A   1      -1.852  -0.871   0.905  1.00  0.00      0.13 C 
ATOM     11 O11  LIG A   1      -1.597  -0.064   2.076  1.00  0.00     -0.39 OA
ATOM     12 C12  LIG A   1      -3.340  -0.754   0.541  1.00  0.00      0.19 C 
ATOM     13 O13  LIG A   1      -3.655  -1.499  -0.641  1.00  0.00     -0.45 OA
ATOM     14 C14  LIG A   1      -4.291  -0.684  -1.544  1.00  0.00      0.38 C 
ATOM     15 O15  LIG A   1      -4.706  -1.045  -2.630  1.00  0.00     -0.24 OA
ATOM     16 C16  LIG A   1      -4.350   0.679  -0.983  1.00  0.00      0.24 C 
ATOM     17 O17  LIG A   1      -4.855   1.786  -1.596  1.00  0.00     -0.50 OA
ATOM     18 C18  LIG A   1      -3.783   0.622   0.215  1.00  0.00      0.19 C 
ATOM     19 O19  LIG A   1      -3.586   1.687   1.056  1.00  0.00     -0.51 OA
ATOM     20 H20  LIG A   1       5.684   1.867  -0.893  1.00  0.00      0.03 HD
ATOM     21 H21  LIG A   1       5.973   0.570  -2.046  1.00  0.00      0.03 HD
ATOM     22 H22  LIG A   1       7.038   0.740  -0.630  1.00  0.00      0.03 HD
ATOM     23 H23  LIG A   1       5.406  -1.128  -0.302  1.00  0.00      0.07 HD
ATOM     24 H24  LIG A   1       5.120   0.194   0.873  1.00  0.00      0.07 HD
ATOM     25 H25  LIG A   1      -1.053  -1.063  -1.113  1.00  0.00      0.07 HD
ATOM     26 H26  LIG A   1      -1.011   0.610  -0.451  1.00  0.00      0.07 HD
ATOM     27 H27  LIG A   1      -1.634  -1.910   1.182  1.00  0.00      0.07 HD
ATOM     28 H28  LIG A   1      -0.659  -0.225   2.304  1.00  0.00      0.21 HD
ATOM     29 H29  LIG A   1      -3.948  -1.141   1.367  1.00  0.00      0.09 HD
ATOM     30 H30  LIG A   1      -4.749   2.514  -0.955  1.00  0.00      0.29 HD
ATOM     31 H31  LIG A   1      -2.998   1.383   1.786  1.00  0.00      0.29 HD
ENDROOT
TORSDOF 1
