ROOT
HETATM    1  C1  UNL     1       3.676   1.498  -2.348  1.00  0.00           C
HETATM    2  C2  UNL     1       3.679   1.916  -1.019  1.00  0.00           C
HETATM    3  C3  UNL     1       2.936   1.219  -0.065  1.00  0.00           C
HETATM    4  C4  UNL     1       2.189   0.091  -0.431  1.00  0.00           C
HETATM    5  C5  UNL     1       1.367  -0.649   0.595  1.00  0.00           C
HETATM    6  O1  UNL     1       0.101   0.006   0.676  1.00  0.00          OA
HETATM    7  C6  UNL     1      -0.844  -0.547   1.491  1.00  0.00           C
HETATM    8  C7  UNL     1      -2.193   0.089   1.548  1.00  0.00           C
HETATM    9  C8  UNL     1      -3.036   0.042   0.254  1.00  0.00           C
HETATM   10  O2  UNL     1      -3.282  -1.312  -0.158  1.00  0.00          OA
HETATM   11  C9  UNL     1      -2.425   0.825  -0.909  1.00  0.00           C
HETATM   12  O3  UNL     1      -2.198   2.178  -0.538  1.00  0.00          OA
HETATM   13  O4  UNL     1      -2.894  -0.684   2.551  1.00  0.00          OA
HETATM   14  C10 UNL     1      -2.090  -1.690   2.981  1.00  0.00           C
HETATM   15  O5  UNL     1      -2.378  -2.553   3.791  1.00  0.00          OA
HETATM   16  C11 UNL     1      -0.782  -1.591   2.320  1.00  0.00           C
HETATM   17  O6  UNL     1       0.260  -2.433   2.580  1.00  0.00          OA
HETATM   18  C12 UNL     1       2.182  -0.313  -1.774  1.00  0.00           C
HETATM   19  C13 UNL     1       2.926   0.385  -2.727  1.00  0.00           C
ENDROOT
TORSDOF 0
