ROOT
HETATM    1  C1  UNL     1       1.837   0.109  -0.702  1.00  0.00           C
HETATM    2  O1  UNL     1       2.977   0.538   0.037  1.00  0.00          OA
HETATM    3  C2  UNL     1       0.617   0.035   0.211  1.00  0.00           C
HETATM    4  O2  UNL     1       0.272   1.360   0.632  1.00  0.00          OA
HETATM    5  C3  UNL     1      -1.090   1.435   0.761  1.00  0.00           C
HETATM    6  O3  UNL     1      -1.672   2.433   1.156  1.00  0.00          OA
HETATM    7  C4  UNL     1      -1.738   0.128   0.332  1.00  0.00           C
HETATM    8  O4  UNL     1      -2.078  -0.730   1.413  1.00  0.00          OA
HETATM    9  C5  UNL     1      -0.618  -0.483  -0.503  1.00  0.00           C
HETATM   10  O5  UNL     1      -0.703  -1.906  -0.498  1.00  0.00          OA
ENDROOT
TORSDOF 0
