ROOT
HETATM    1  C1  UNL     1       5.043  -0.236   1.815  1.00  0.00           C
HETATM    2  C2  UNL     1       5.323  -0.917   0.485  1.00  0.00           C
HETATM    3  C3  UNL     1       4.094  -1.579  -0.146  1.00  0.00           C
HETATM    4  C4  UNL     1       3.328  -0.702  -1.142  1.00  0.00           C
HETATM    5  C5  UNL     1       2.594   0.510  -0.565  1.00  0.00           C
HETATM    6  C6  UNL     1       1.550   0.199   0.513  1.00  0.00           C
HETATM    7  C7  UNL     1       0.432  -0.760   0.092  1.00  0.00           C
HETATM    8  C8  UNL     1      -0.382  -0.327  -1.130  1.00  0.00           C
HETATM    9  C9  UNL     1      -1.078   1.025  -0.982  1.00  0.00           C
HETATM   10  O1  UNL     1      -1.935   1.013   0.167  1.00  0.00          OA
HETATM   11  C10 UNL     1      -3.150   1.627  -0.286  1.00  0.00           C
HETATM   12  C11 UNL     1      -4.360   1.245   0.576  1.00  0.00           C
HETATM   13  O2  UNL     1      -4.179   1.843   1.877  1.00  0.00          OA
HETATM   14  C12 UNL     1      -4.033   0.864   2.823  1.00  0.00           C
HETATM   15  O3  UNL     1      -3.786   1.062   3.998  1.00  0.00          OA
HETATM   16  C13 UNL     1      -4.297  -0.436   2.182  1.00  0.00           C
HETATM   17  O4  UNL     1      -4.379  -1.643   2.815  1.00  0.00          OA
HETATM   18  C14 UNL     1      -4.519  -0.198   0.894  1.00  0.00           C
HETATM   19  O5  UNL     1      -4.922  -1.157  -0.002  1.00  0.00          OA
HETATM   20  C15 UNL     1      -3.216   1.194  -1.729  1.00  0.00           C
HETATM   21  O6  UNL     1      -1.859   1.292  -2.160  1.00  0.00          OA
ENDROOT
TORSDOF 0
