MODEL 1
REMARK VINA RESULT:    -9.233      0.000      0.000
REMARK INTER + INTRA:          -9.233
REMARK INTER:                  -9.233
REMARK INTRA:                   0.000
REMARK UNBOUND:                 0.000
ROOT
HETATM    1  C1  UNL     1      13.559 -13.981  17.557  1.00  0.00           C
HETATM    2  C2  UNL     1      12.455 -13.783  17.989  1.00  0.00           C
HETATM    3  C3  UNL     1      14.909 -14.222  17.029  1.00  0.00           C
HETATM    4  O1  UNL     1      15.738 -13.108  17.372  1.00  0.00          OA
HETATM    5  C4  UNL     1      17.041 -13.150  16.965  1.00  0.00           C
HETATM    6  C5  UNL     1      17.916 -11.989  17.288  1.00  0.00           C
HETATM    7  C6  UNL     1      18.021 -11.679  18.784  1.00  0.00           C
HETATM    8  O2  UNL     1      18.833 -10.515  19.019  1.00  0.00          OA
HETATM    9  C7  UNL     1      19.342 -10.683  20.351  1.00  0.00           C
HETATM   10  C8  UNL     1      20.851 -10.468  20.326  1.00  0.00           C
HETATM   11  C9  UNL     1      18.656  -9.691  21.280  1.00  0.00           C
HETATM   12  O3  UNL     1      19.059 -12.014  20.811  1.00  0.00          OA
HETATM   13  C10 UNL     1      18.696 -12.733  19.631  1.00  0.00           C
HETATM   14  O4  UNL     1      19.198 -12.360  16.742  1.00  0.00          OA
HETATM   15  C11 UNL     1      19.097 -13.572  16.139  1.00  0.00           C
HETATM   16  O5  UNL     1      19.983 -14.185  15.572  1.00  0.00          OA
HETATM   17  C12 UNL     1      17.723 -14.074  16.288  1.00  0.00           C
HETATM   18  O6  UNL     1      17.303 -15.279  15.804  1.00  0.00          OA
ENDROOT
TORSDOF 0
ENDMDL
