ROOT
HETATM    1  C1  UNL     1      -4.475   1.721   0.597  1.00  0.00           C
HETATM    2  C2  UNL     1      -3.628   0.477   0.383  1.00  0.00           C
HETATM    3  C3  UNL     1      -2.183   0.836   0.047  1.00  0.00           C
HETATM    4  C4  UNL     1      -1.328  -0.410  -0.169  1.00  0.00           C
HETATM    5  O1  UNL     1      -0.000   0.022  -0.475  1.00  0.00          OA
HETATM    6  C5  UNL     1       0.935  -0.952  -0.682  1.00  0.00           C
HETATM    7  C6  UNL     1       2.337  -0.540  -0.993  1.00  0.00           C
HETATM    8  C7  UNL     1       3.111   0.138   0.161  1.00  0.00           C
HETATM    9  O2  UNL     1       3.082  -0.679   1.343  1.00  0.00          OA
HETATM   10  C8  UNL     1       2.601   1.543   0.491  1.00  0.00           C
HETATM   11  O3  UNL     1       2.716   2.399  -0.637  1.00  0.00          OA
HETATM   12  O4  UNL     1       3.003  -1.785  -1.303  1.00  0.00          OA
HETATM   13  C9  UNL     1       2.157  -2.814  -1.046  1.00  0.00           C
HETATM   14  O5  UNL     1       2.405  -4.004  -1.138  1.00  0.00          OA
HETATM   15  C10 UNL     1       0.834  -2.283  -0.687  1.00  0.00           C
HETATM   16  O6  UNL     1      -0.255  -3.077  -0.461  1.00  0.00          OA
ENDROOT
TORSDOF 0
