ROOT
HETATM    1  C1  UNL     1      -2.588   1.643  -0.013  1.00  0.00           C
HETATM    2  C2  UNL     1      -2.079   0.227  -0.250  1.00  0.00           C
HETATM    3  O1  UNL     1      -0.645   0.222  -0.157  1.00  0.00          OA
HETATM    4  C3  UNL     1      -0.356  -0.489   1.060  1.00  0.00           C
HETATM    5  C4  UNL     1       1.004  -1.188   1.020  1.00  0.00           C
HETATM    6  O2  UNL     1       1.047  -2.140  -0.058  1.00  0.00          OA
HETATM    7  C5  UNL     1       2.059  -1.820  -0.919  1.00  0.00           C
HETATM    8  O3  UNL     1       2.321  -2.426  -1.941  1.00  0.00          OA
HETATM    9  C6  UNL     1       2.789  -0.660  -0.374  1.00  0.00           C
HETATM   10  O4  UNL     1       3.938  -0.135  -0.892  1.00  0.00          OA
HETATM   11  C7  UNL     1       2.145  -0.285   0.729  1.00  0.00           C
HETATM   12  O5  UNL     1       2.528   0.692   1.609  1.00  0.00          OA
HETATM   13  C8  UNL     1       2.170   1.993   1.133  1.00  0.00           C
HETATM   14  C9  UNL     1      -1.526  -1.437   1.181  1.00  0.00           C
HETATM   15  O6  UNL     1      -2.628  -0.633   0.760  1.00  0.00          OA
HETATM   16  C10 UNL     1      -2.479  -0.283  -1.629  1.00  0.00           C
ENDROOT
TORSDOF 0
