ROOT
HETATM    1  C1  UNL     1      -3.005   0.957  -0.566  1.00  0.00           C
HETATM    2  O1  UNL     1      -2.511   2.281  -0.426  1.00  0.00          OA
HETATM    3  C2  UNL     1      -2.288  -0.022   0.373  1.00  0.00           C
HETATM    4  O2  UNL     1      -2.855  -1.332   0.221  1.00  0.00          OA
HETATM    5  C3  UNL     1      -0.763  -0.028   0.153  1.00  0.00           C
HETATM    6  O3  UNL     1      -0.111  -0.805   1.189  1.00  0.00          OA
HETATM    7  C4  UNL     1       1.091  -1.361   0.638  1.00  0.00           C
HETATM    8  O4  UNL     1       2.247  -0.839   1.273  1.00  0.00          OA
HETATM    9  C5  UNL     1       2.864   0.054   0.330  1.00  0.00           C
HETATM   10  O5  UNL     1       1.977   0.240  -0.793  1.00  0.00          OA
HETATM   11  C6  UNL     1       1.176  -0.945  -0.813  1.00  0.00           C
HETATM   12  C7  UNL     1      -0.266  -0.641  -1.159  1.00  0.00           C
HETATM   13  O6  UNL     1      -0.949  -1.857  -1.487  1.00  0.00          OA
HETATM   14  C8  UNL     1       3.332   1.397   0.974  1.00  0.00           C
HETATM   15 CL1  UNL     1       4.161   2.421  -0.253  1.00  0.00           C
HETATM   16 CL2  UNL     1       1.953   2.329   1.644  1.00  0.00           C
HETATM   17 CL3  UNL     1       4.504   1.082   2.302  1.00  0.00           C
ENDROOT
TORSDOF 0
