ROOT
HETATM    1  C1  UNL     1      -3.730   0.960  -0.611  1.00  0.00           C
HETATM    2  C2  UNL     1      -2.560   0.004  -0.415  1.00  0.00           C
HETATM    3  O1  UNL     1      -1.449   0.725   0.139  1.00  0.00          OA
HETATM    4  C3  UNL     1      -1.345   0.261   1.491  1.00  0.00           C
HETATM    5  C4  UNL     1       0.067   0.383   2.064  1.00  0.00           C
HETATM    6  O2  UNL     1       0.468   1.766   2.032  1.00  0.00          OA
HETATM    7  C5  UNL     1       1.772   1.861   1.637  1.00  0.00           C
HETATM    8  O3  UNL     1       2.348   2.921   1.450  1.00  0.00          OA
HETATM    9  C6  UNL     1       2.384   0.476   1.534  1.00  0.00           C
HETATM   10  O4  UNL     1       3.205   0.196   0.421  1.00  0.00          OA
HETATM   11  C7  UNL     1       2.320  -0.271  -0.603  1.00  0.00           C
HETATM   12  O5  UNL     1       1.027  -0.528  -0.043  1.00  0.00          OA
HETATM   13  C8  UNL     1       1.175  -0.390   1.367  1.00  0.00           C
HETATM   14  C9  UNL     1       2.183   0.786  -1.691  1.00  0.00           C
HETATM   15  C10 UNL     1       2.880  -1.571  -1.168  1.00  0.00           C
HETATM   16  C11 UNL     1      -1.878  -1.149   1.414  1.00  0.00           C
HETATM   17  O6  UNL     1      -2.964  -1.034   0.495  1.00  0.00          OA
HETATM   18  C12 UNL     1      -2.128  -0.620  -1.736  1.00  0.00           C
ENDROOT
TORSDOF 0
