MODEL 1
REMARK VINA RESULT:    -9.246      0.000      0.000
REMARK INTER + INTRA:          -9.246
REMARK INTER:                  -9.246
REMARK INTRA:                   0.000
REMARK UNBOUND:                 0.000
ROOT
HETATM    1  C1  UNL     1      20.559 -13.493  14.694  1.00  0.00           C
HETATM    2  C2  UNL     1      19.922 -13.829  16.036  1.00  0.00           C
HETATM    3  O1  UNL     1      19.157 -12.699  16.491  1.00  0.00          OA
HETATM    4  C3  UNL     1      17.789 -13.130  16.422  1.00  0.00           C
HETATM    5  C4  UNL     1      16.896 -12.380  17.413  1.00  0.00           C
HETATM    6  O2  UNL     1      15.517 -12.693  17.153  1.00  0.00          OA
HETATM    7  C5  UNL     1      14.920 -13.148  18.294  1.00  0.00           C
HETATM    8  O3  UNL     1      13.750 -13.478  18.371  1.00  0.00          OA
HETATM    9  C6  UNL     1      15.922 -13.187  19.378  1.00  0.00           C
HETATM   10  O4  UNL     1      15.786 -13.635  20.664  1.00  0.00          OA
HETATM   11  C7  UNL     1      14.505 -14.162  21.013  1.00  0.00           C
HETATM   12  C8  UNL     1      14.492 -14.667  22.442  1.00  0.00           C
HETATM   13  C9  UNL     1      15.641 -14.694  23.246  1.00  0.00           C
HETATM   14  C10 UNL     1      15.582 -15.179  24.555  1.00  0.00           C
HETATM   15  C11 UNL     1      14.376 -15.646  25.075  1.00  0.00           C
HETATM   16  C12 UNL     1      13.228 -15.633  24.287  1.00  0.00           C
HETATM   17  C13 UNL     1      13.285 -15.146  22.979  1.00  0.00           C
HETATM   18  C14 UNL     1      17.053 -12.724  18.849  1.00  0.00           C
HETATM   19  O5  UNL     1      18.263 -12.705  19.492  1.00  0.00          OA
HETATM   20  C15 UNL     1      18.838 -11.398  19.567  1.00  0.00           C
HETATM   21  C16 UNL     1      20.121 -11.493  20.352  1.00  0.00           C
HETATM   22  C17 UNL     1      20.094 -11.854  21.707  1.00  0.00           C
HETATM   23  C18 UNL     1      21.278 -11.947  22.439  1.00  0.00           C
HETATM   24  C19 UNL     1      22.501 -11.683  21.825  1.00  0.00           C
HETATM   25  C20 UNL     1      22.541 -11.326  20.478  1.00  0.00           C
HETATM   26  C21 UNL     1      21.357 -11.232  19.744  1.00  0.00           C
HETATM   27  C22 UNL     1      17.876 -14.629  16.595  1.00  0.00           C
HETATM   28  O6  UNL     1      19.056 -14.961  15.862  1.00  0.00          OA
HETATM   29  C23 UNL     1      20.979 -14.155  17.086  1.00  0.00           C
ENDROOT
TORSDOF 0
ENDMDL
