ROOT
HETATM    1  C1  UNL     1      -2.625   0.309  -0.186  1.00  0.00           C
HETATM    2  O1  UNL     1      -2.509   1.686  -0.499  1.00  0.00          OA
HETATM    3  C2  UNL     1      -1.407  -0.212   0.596  1.00  0.00           C
HETATM    4  C3  UNL     1      -0.130  -0.317  -0.257  1.00  0.00           C
HETATM    5  O2  UNL     1       0.212   0.905  -0.927  1.00  0.00          OA
HETATM    6  C4  UNL     1       1.571   1.002  -1.003  1.00  0.00           C
HETATM    7  O3  UNL     1       2.182   1.928  -1.516  1.00  0.00          OA
HETATM    8  C5  UNL     1       2.218  -0.233  -0.404  1.00  0.00           C
HETATM    9  O4  UNL     1       3.439  -0.034   0.288  1.00  0.00          OA
HETATM   10  C6  UNL     1       1.121  -0.690   0.537  1.00  0.00           C
HETATM   11  O5  UNL     1       1.232   0.028   1.771  1.00  0.00          OA
HETATM   12  O6  UNL     1      -1.714  -1.512   1.129  1.00  0.00          OA
ENDROOT
TORSDOF 0
