ROOT
HETATM    1  C1  UNL     1       2.837   2.587   0.238  1.00  0.00           C
HETATM    2  C2  UNL     1       3.707   1.344   0.135  1.00  0.00           C
HETATM    3  C3  UNL     1       2.982   0.141  -0.466  1.00  0.00           C
HETATM    4  C4  UNL     1       1.818  -0.360   0.385  1.00  0.00           C
HETATM    5  O1  UNL     1       1.300  -1.543  -0.235  1.00  0.00          OA
HETATM    6  C5  UNL     1       0.336  -2.164   0.518  1.00  0.00           C
HETATM    7  C6  UNL     1      -0.928  -1.523   0.979  1.00  0.00           C
HETATM    8  C7  UNL     1      -1.841  -1.061  -0.174  1.00  0.00           C
HETATM    9  O2  UNL     1      -1.336   0.144  -0.777  1.00  0.00          OA
HETATM   10  C8  UNL     1      -2.146   1.218  -0.277  1.00  0.00           C
HETATM   11  C9  UNL     1      -2.865   1.873  -1.453  1.00  0.00           C
HETATM   12  C10 UNL     1      -1.268   2.230   0.447  1.00  0.00           C
HETATM   13  O3  UNL     1      -3.103   0.697   0.649  1.00  0.00          OA
HETATM   14  C11 UNL     1      -3.232  -0.678   0.293  1.00  0.00           C
HETATM   15  O4  UNL     1      -1.574  -2.588   1.706  1.00  0.00          OA
HETATM   16  C12 UNL     1      -0.843  -3.739   1.615  1.00  0.00           C
HETATM   17  O5  UNL     1      -1.169  -4.809   2.093  1.00  0.00          OA
HETATM   18  C13 UNL     1       0.379  -3.450   0.849  1.00  0.00           C
HETATM   19  O6  UNL     1       1.361  -4.347   0.542  1.00  0.00          OA
ENDROOT
TORSDOF 0
