ROOT
HETATM    1  C1  UNL     1      -4.173   0.572  -0.545  1.00  0.00           C
HETATM    2  C2  UNL     1      -2.853   0.063   0.017  1.00  0.00           C
HETATM    3  O1  UNL     1      -1.876   0.021  -1.036  1.00  0.00          OA
HETATM    4  C3  UNL     1      -0.945   1.063  -0.716  1.00  0.00           C
HETATM    5  C4  UNL     1       0.448   0.814  -1.307  1.00  0.00           C
HETATM    6  O2  UNL     1       1.244   1.995  -1.145  1.00  0.00          OA
HETATM    7  C5  UNL     1       2.399   1.686  -0.493  1.00  0.00           C
HETATM    8  O3  UNL     1       3.257   2.501  -0.207  1.00  0.00          OA
HETATM    9  C6  UNL     1       2.417   0.236  -0.191  1.00  0.00           C
HETATM   10  O4  UNL     1       3.392  -0.480   0.452  1.00  0.00          OA
HETATM   11  C7  UNL     1       4.559   0.244   0.826  1.00  0.00           C
HETATM   12  C8  UNL     1       1.268  -0.255  -0.671  1.00  0.00           C
HETATM   13  O5  UNL     1       0.761  -1.524  -0.679  1.00  0.00          OA
HETATM   14  C9  UNL     1       1.534  -2.552  -0.071  1.00  0.00           C
HETATM   15  C10 UNL     1      -1.024   1.160   0.790  1.00  0.00           C
HETATM   16  O6  UNL     1      -2.416   0.962   1.048  1.00  0.00          OA
HETATM   17  C11 UNL     1      -3.000  -1.339   0.596  1.00  0.00           C
ENDROOT
TORSDOF 0
