ROOT
HETATM    1  C1  UNL     1      -1.514  -0.182   0.284  1.00  0.00           C
HETATM    2  C2  UNL     1      -0.170   0.434   0.153  1.00  0.00           C
HETATM    3  C3  UNL     1       0.928  -0.615  -0.078  1.00  0.00           C
HETATM    4  O1  UNL     1       1.003  -1.465   1.089  1.00  0.00          OA
HETATM    5  C4  UNL     1       2.301   0.025  -0.304  1.00  0.00           C
HETATM    6  O2  UNL     1       2.728   0.622   0.923  1.00  0.00          OA
HETATM    7  O3  UNL     1      -0.314   1.302  -0.979  1.00  0.00          OA
HETATM    8  C5  UNL     1      -1.607   1.265  -1.432  1.00  0.00           C
HETATM    9  O4  UNL     1      -2.030   1.914  -2.372  1.00  0.00          OA
HETATM   10  C6  UNL     1      -2.363   0.301  -0.613  1.00  0.00           C
HETATM   11  O5  UNL     1      -3.667  -0.062  -0.784  1.00  0.00          OA
HETATM   12  O6  UNL     1      -1.797  -1.170   1.193  1.00  0.00          OA
ENDROOT
TORSDOF 0
