ROOT
HETATM    1  C1  UNL     1       1.939  -2.153   0.513  1.00  0.00           C
HETATM    2  O1  UNL     1       0.684  -1.558   0.831  1.00  0.00          OA
HETATM    3  C2  UNL     1       0.231  -0.563   0.007  1.00  0.00           C
HETATM    4  C3  UNL     1      -1.113   0.011   0.305  1.00  0.00           C
HETATM    5  C4  UNL     1      -1.197   0.650   1.708  1.00  0.00           C
HETATM    6  O2  UNL     1      -1.064  -0.341   2.746  1.00  0.00          OA
HETATM    7  C5  UNL     1      -2.545   1.345   1.934  1.00  0.00           C
HETATM    8  O3  UNL     1      -3.592   0.374   1.960  1.00  0.00          OA
HETATM    9  O4  UNL     1      -1.287   1.006  -0.708  1.00  0.00          OA
HETATM   10  C6  UNL     1      -0.194   1.036  -1.521  1.00  0.00           C
HETATM   11  O5  UNL     1      -0.064   1.800  -2.461  1.00  0.00          OA
HETATM   12  C7  UNL     1       0.781   0.019  -1.065  1.00  0.00           C
HETATM   13  O6  UNL     1       2.008  -0.274  -1.600  1.00  0.00          OA
HETATM   14  C8  UNL     1       2.361   0.434  -2.783  1.00  0.00           C
ENDROOT
TORSDOF 0
