ROOT
HETATM    1  C1  UNL     1       3.157   2.048   0.826  1.00  0.00           C
HETATM    2  C2  UNL     1       3.383   0.730   0.096  1.00  0.00           C
HETATM    3  O1  UNL     1       2.227  -0.106   0.260  1.00  0.00          OA
HETATM    4  C3  UNL     1       1.585  -0.102  -1.029  1.00  0.00           C
HETATM    5  C4  UNL     1       0.772  -1.374  -1.279  1.00  0.00           C
HETATM    6  O2  UNL     1       1.599  -2.540  -1.121  1.00  0.00          OA
HETATM    7  C5  UNL     1       1.132  -3.273  -0.076  1.00  0.00           C
HETATM    8  O3  UNL     1       1.617  -4.300   0.368  1.00  0.00          OA
HETATM    9  C6  UNL     1      -0.110  -2.670   0.430  1.00  0.00           C
HETATM   10  O4  UNL     1      -0.858  -3.211   1.435  1.00  0.00          OA
HETATM   11  C7  UNL     1      -0.326  -1.569  -0.292  1.00  0.00           C
HETATM   12  O5  UNL     1      -1.336  -0.651  -0.265  1.00  0.00          OA
HETATM   13  C8  UNL     1      -2.331  -0.813   0.748  1.00  0.00           C
HETATM   14  C9  UNL     1      -3.288   0.348   0.636  1.00  0.00           C
HETATM   15  C10 UNL     1      -4.532   0.194   0.009  1.00  0.00           C
HETATM   16  C11 UNL     1      -5.407   1.277  -0.102  1.00  0.00           C
HETATM   17  C12 UNL     1      -5.045   2.523   0.406  1.00  0.00           C
HETATM   18  C13 UNL     1      -3.806   2.690   1.023  1.00  0.00           C
HETATM   19  C14 UNL     1      -2.930   1.609   1.135  1.00  0.00           C
HETATM   20  C15 UNL     1       2.752   0.062  -1.975  1.00  0.00           C
HETATM   21  O6  UNL     1       3.584   1.007  -1.299  1.00  0.00          OA
HETATM   22  C16 UNL     1       4.597  -0.008   0.646  1.00  0.00           C
ENDROOT
TORSDOF 0
