ROOT
HETATM    1  C1  UNL     1       3.644  -0.934   0.254  1.00  0.00           C
HETATM    2  C2  UNL     1       2.769  -0.761  -0.982  1.00  0.00           C
HETATM    3  O1  UNL     1       1.496  -0.234  -0.570  1.00  0.00          OA
HETATM    4  C3  UNL     1       0.523  -1.106  -1.176  1.00  0.00           C
HETATM    5  C4  UNL     1      -0.778  -1.167  -0.371  1.00  0.00           C
HETATM    6  O2  UNL     1      -0.518  -1.609   0.967  1.00  0.00          OA
HETATM    7  C5  UNL     1      -0.841  -0.617   1.840  1.00  0.00           C
HETATM    8  O3  UNL     1      -0.656  -0.659   3.042  1.00  0.00          OA
HETATM    9  C6  UNL     1      -1.466   0.502   1.101  1.00  0.00           C
HETATM   10  O4  UNL     1      -2.007   1.646   1.625  1.00  0.00          OA
HETATM   11  C7  UNL     1      -2.508   1.570   2.975  1.00  0.00           C
HETATM   12  C8  UNL     1      -3.630   0.627   3.124  1.00  0.00           C
HETATM   13  N1  UNL     1      -4.506  -0.128   3.232  1.00  0.00          NA
HETATM   14  C9  UNL     1      -1.418   0.166  -0.193  1.00  0.00           C
HETATM   15  O5  UNL     1      -1.843   0.818  -1.318  1.00  0.00          OA
HETATM   16  C10 UNL     1      -2.224   2.200  -1.220  1.00  0.00           C
HETATM   17  C11 UNL     1      -3.621   2.373  -0.794  1.00  0.00           C
HETATM   18  N2  UNL     1      -4.717   2.533  -0.447  1.00  0.00          NA
HETATM   19  C12 UNL     1       1.256  -2.425  -1.248  1.00  0.00           C
HETATM   20  O6  UNL     1       2.578  -2.034  -1.618  1.00  0.00          OA
HETATM   21  C13 UNL     1       3.405   0.194  -1.983  1.00  0.00           C
ENDROOT
TORSDOF 0
