MODEL 1
REMARK VINA RESULT:    -6.903      0.000      0.000
REMARK INTER + INTRA:          -6.903
REMARK INTER:                  -6.903
REMARK INTRA:                   0.000
REMARK UNBOUND:                 0.000
ROOT
HETATM    1  C1  UNL     1      20.063 -14.023  16.439  1.00  0.00           C
HETATM    2  C2  UNL     1      18.652 -14.004  17.005  1.00  0.00           C
HETATM    3  O1  UNL     1      17.904 -12.921  16.452  1.00  0.00          OA
HETATM    4  C3  UNL     1      17.957 -15.339  16.734  1.00  0.00           C
HETATM    5  O2  UNL     1      17.763 -15.532  15.326  1.00  0.00          OA
HETATM    6  C4  UNL     1      16.573 -16.163  15.122  1.00  0.00           C
HETATM    7  O3  UNL     1      16.203 -16.601  14.043  1.00  0.00          OA
HETATM    8  C5  UNL     1      15.818 -16.334  16.424  1.00  0.00           C
HETATM    9  O4  UNL     1      15.879 -17.667  16.927  1.00  0.00          OA
HETATM   10  C6  UNL     1      16.569 -15.395  17.350  1.00  0.00           C
HETATM   11  O5  UNL     1      16.630 -15.885  18.689  1.00  0.00          OA
HETATM   12  O6  UNL     1      20.537 -13.070  15.822  1.00  0.00          OA
ENDROOT
TORSDOF 0
ENDMDL
