ROOT
HETATM    1  C1  UNL     1       0.789  -1.031   3.680  1.00  0.00           C
HETATM    2  C2  UNL     1       1.521   0.006   3.247  1.00  0.00           C
HETATM    3  C3  UNL     1       1.604   0.523   1.836  1.00  0.00           C
HETATM    4  O1  UNL     1       0.822  -0.287   0.961  1.00  0.00          OA
HETATM    5  C4  UNL     1       0.753   0.059  -0.358  1.00  0.00           C
HETATM    6  C5  UNL     1      -0.071  -0.801  -1.251  1.00  0.00           C
HETATM    7  C6  UNL     1      -1.560  -0.822  -0.893  1.00  0.00           C
HETATM    8  O2  UNL     1      -1.834  -1.636   0.257  1.00  0.00          OA
HETATM    9  C7  UNL     1      -3.195  -2.062   0.090  1.00  0.00           C
HETATM   10  C8  UNL     1      -3.269  -3.560   0.357  1.00  0.00           C
HETATM   11  C9  UNL     1      -4.089  -1.283   1.046  1.00  0.00           C
HETATM   12  O3  UNL     1      -3.619  -1.798  -1.256  1.00  0.00          OA
HETATM   13  C10 UNL     1      -2.418  -1.466  -1.958  1.00  0.00           C
HETATM   14  O4  UNL     1       0.105  -0.212  -2.545  1.00  0.00          OA
HETATM   15  C11 UNL     1       0.897   0.892  -2.444  1.00  0.00           C
HETATM   16  O5  UNL     1       1.187   1.611  -3.382  1.00  0.00          OA
HETATM   17  C12 UNL     1       1.327   1.058  -1.038  1.00  0.00           C
HETATM   18  O6  UNL     1       2.147   2.022  -0.515  1.00  0.00          OA
HETATM   19  C13 UNL     1       2.759   2.909  -1.451  1.00  0.00           C
HETATM   20  C14 UNL     1       3.653   3.821  -0.665  1.00  0.00           C
HETATM   21  C15 UNL     1       4.970   3.961  -0.869  1.00  0.00           C
ENDROOT
TORSDOF 0
