MODEL 1
REMARK VINA RESULT:    -8.628      0.000      0.000
REMARK INTER + INTRA:          -8.628
REMARK INTER:                  -8.628
REMARK INTRA:                   0.000
REMARK UNBOUND:                 0.000
ROOT
HETATM    1  C1  UNL     1      16.569 -10.700  17.871  1.00  0.00           C
HETATM    2  O1  UNL     1      17.591 -11.434  17.203  1.00  0.00          OA
HETATM    3  C2  UNL     1      17.314 -12.729  16.858  1.00  0.00           C
HETATM    4  C3  UNL     1      18.362 -13.472  16.100  1.00  0.00           C
HETATM    5  C4  UNL     1      19.694 -13.589  16.871  1.00  0.00           C
HETATM    6  O2  UNL     1      20.316 -12.301  17.045  1.00  0.00          OA
HETATM    7  C5  UNL     1      20.705 -14.468  16.125  1.00  0.00           C
HETATM    8  O3  UNL     1      21.094 -13.831  14.907  1.00  0.00          OA
HETATM    9  O4  UNL     1      17.783 -14.766  15.904  1.00  0.00          OA
HETATM   10  C6  UNL     1      16.543 -14.809  16.467  1.00  0.00           C
HETATM   11  O5  UNL     1      15.826 -15.794  16.464  1.00  0.00          OA
HETATM   12  C7  UNL     1      16.238 -13.493  17.075  1.00  0.00           C
HETATM   13  O6  UNL     1      15.103 -13.115  17.743  1.00  0.00          OA
HETATM   14  C8  UNL     1      14.057 -14.079  17.799  1.00  0.00           C
ENDROOT
TORSDOF 0
ENDMDL
