ROOT
HETATM    1  C1  UNL     1       2.438   3.009  -0.278  1.00  0.00           C
HETATM    2  C2  UNL     1       2.829   1.742  -0.084  1.00  0.00           C
HETATM    3  C3  UNL     1       2.214   0.548  -0.745  1.00  0.00           C
HETATM    4  O1  UNL     1       1.765  -0.328   0.290  1.00  0.00          OA
HETATM    5  C4  UNL     1       1.245  -1.502  -0.186  1.00  0.00           C
HETATM    6  C5  UNL     1       0.042  -1.573  -1.061  1.00  0.00           C
HETATM    7  C6  UNL     1      -1.228  -0.887  -0.550  1.00  0.00           C
HETATM    8  O2  UNL     1      -1.146   0.542  -0.638  1.00  0.00          OA
HETATM    9  C7  UNL     1      -2.037   1.026   0.380  1.00  0.00           C
HETATM   10  C8  UNL     1      -1.275   2.004   1.267  1.00  0.00           C
HETATM   11  C9  UNL     1      -3.233   1.696  -0.282  1.00  0.00           C
HETATM   12  O3  UNL     1      -2.509  -0.074   1.173  1.00  0.00          OA
HETATM   13  C10 UNL     1      -1.596  -1.137   0.894  1.00  0.00           C
HETATM   14  O4  UNL     1      -0.197  -2.990  -1.184  1.00  0.00          OA
HETATM   15  C11 UNL     1       0.747  -3.674  -0.481  1.00  0.00           C
HETATM   16  O5  UNL     1       0.837  -4.884  -0.374  1.00  0.00          OA
HETATM   17  C12 UNL     1       1.653  -2.718   0.165  1.00  0.00           C
HETATM   18  O6  UNL     1       2.684  -3.063   0.988  1.00  0.00          OA
ENDROOT
TORSDOF 0
