MODEL 1
REMARK VINA RESULT:    -6.474      0.000      0.000
REMARK INTER + INTRA:          -6.474
REMARK INTER:                  -6.474
REMARK INTRA:                   0.000
REMARK UNBOUND:                 0.000
ROOT
HETATM    1  C1  UNL     1      16.372 -12.278  17.148  1.00  0.00           C
HETATM    2  O1  UNL     1      15.611 -13.461  17.375  1.00  0.00          OA
HETATM    3  C2  UNL     1      17.855 -12.558  17.370  1.00  0.00           C
HETATM    4  O2  UNL     1      18.314 -13.459  16.355  1.00  0.00          OA
HETATM    5  C3  UNL     1      19.614 -13.148  16.053  1.00  0.00           C
HETATM    6  O3  UNL     1      20.286 -13.782  15.255  1.00  0.00          OA
HETATM    7  C4  UNL     1      20.063 -11.921  16.831  1.00  0.00           C
HETATM    8  O4  UNL     1      20.820 -12.222  17.996  1.00  0.00          OA
HETATM    9  C5  UNL     1      18.715 -11.317  17.211  1.00  0.00           C
HETATM   10  O5  UNL     1      18.822 -10.560  18.414  1.00  0.00          OA
ENDROOT
TORSDOF 0
ENDMDL
