ROOT
HETATM    1  C1  UNL     1      -5.914  -1.704   1.077  1.00  0.00           C
HETATM    2  C2  UNL     1      -5.088  -1.076  -0.038  1.00  0.00           C
HETATM    3  O1  UNL     1      -4.638   0.223   0.376  1.00  0.00          OA
HETATM    4  C3  UNL     1      -3.238   0.055   0.669  1.00  0.00           C
HETATM    5  C4  UNL     1      -2.492   1.384   0.517  1.00  0.00           C
HETATM    6  O2  UNL     1      -2.905   2.272   1.579  1.00  0.00          OA
HETATM    7  C5  UNL     1      -1.825   2.626   2.318  1.00  0.00           C
HETATM    8  O3  UNL     1      -1.813   3.340   3.306  1.00  0.00          OA
HETATM    9  C6  UNL     1      -0.621   2.015   1.740  1.00  0.00           C
HETATM   10  O4  UNL     1       0.634   2.210   2.242  1.00  0.00          OA
HETATM   11  C7  UNL     1      -1.013   1.300   0.683  1.00  0.00           C
HETATM   12  O5  UNL     1      -0.301   0.570  -0.226  1.00  0.00          OA
HETATM   13  C8  UNL     1       1.120   0.520  -0.055  1.00  0.00           C
HETATM   14  C9  UNL     1       1.686  -0.349  -1.179  1.00  0.00           C
HETATM   15  C10 UNL     1       3.207  -0.576  -1.147  1.00  0.00           C
HETATM   16  C11 UNL     1       4.013   0.726  -1.112  1.00  0.00           C
HETATM   17  C12 UNL     1       5.512   0.468  -1.297  1.00  0.00           C
HETATM   18  C13 UNL     1       5.970  -0.891  -0.764  1.00  0.00           C
HETATM   19  C14 UNL     1       5.106  -1.365   0.396  1.00  0.00           C
HETATM   20  C15 UNL     1       3.635  -1.520  -0.005  1.00  0.00           C
HETATM   21  C16 UNL     1      -2.834  -1.024  -0.307  1.00  0.00           C
HETATM   22  O6  UNL     1      -3.953  -1.915  -0.299  1.00  0.00          OA
HETATM   23  C17 UNL     1      -5.904  -0.923  -1.315  1.00  0.00           C
ENDROOT
TORSDOF 0
