ROOT
HETATM    1  C1  UNL     1      -2.534   0.550  -0.504  1.00  0.00           C
HETATM    2 BR1  UNL     1      -2.910  -0.085  -2.311  1.00  0.00           C
HETATM    3  C2  UNL     1      -1.366  -0.190   0.149  1.00  0.00           C
HETATM    4  C3  UNL     1      -0.032  -0.047  -0.613  1.00  0.00           C
HETATM    5  O1  UNL     1       0.280   1.336  -0.836  1.00  0.00          OA
HETATM    6  C4  UNL     1       1.476   1.648  -0.254  1.00  0.00           C
HETATM    7  O2  UNL     1       1.988   2.751  -0.261  1.00  0.00          OA
HETATM    8  C5  UNL     1       2.015   0.436   0.398  1.00  0.00           C
HETATM    9  O3  UNL     1       3.179   0.386   1.107  1.00  0.00          OA
HETATM   10  C6  UNL     1       1.135  -0.536   0.173  1.00  0.00           C
HETATM   11  O4  UNL     1       1.216  -1.849   0.552  1.00  0.00          OA
HETATM   12  O5  UNL     1      -1.723  -1.566   0.345  1.00  0.00          OA
ENDROOT
TORSDOF 0
